100 
Atoms. Timestep: 1000 
A 0 0 0 
A 0.019305 0.15502 0.301987 
A 0.0635573 0.276836 0.616316 
A 0.123881 0.344155 0.94408 
A 0.184205 0.411474 1.27184 
A 0.268372 0.449049 1.59911 
A 0.349078 0.502927 1.92497 
A 0.388658 0.522677 2.26208 
A 0.487839 0.565831 2.58442 
A 0.577946 0.599203 2.91056 
A 0.699148 0.634343 3.22627 
A 0.787762 0.666904 3.5529 
A 0.8658 0.729719 3.87781 
A 0.910717 0.776512 4.21156 
A 0.932617 0.787987 4.55066 
A 0.890999 0.755404 4.88653 
A 0.813762 0.72723 5.21644 
A 0.76125 0.702651 5.55146 
A 0.728136 0.698096 5.88981 
A 0.629038 0.702778 6.21502 
A 0.468042 0.668731 6.51254 
A 0.301871 0.599039 6.80086 
A 0.163137 0.524285 7.10214 
A 0.0803343 0.420382 7.4151 
A 0.000712054 0.313601 7.72792 
A -0.10206 0.25235 8.04618 
A -0.222425 0.122865 8.3366 
A -0.409094 -0.0243983 8.57964 
A -0.58417 -0.131914 8.85055 
A -0.789057 -0.162617 9.12014 
A -0.99569 -0.221697 9.3836 
A -1.20381 -0.313276 9.63638 
A -1.40387 -0.39865 9.8977 
A -1.63839 -0.512704 10.1159 
A -1.86487 -0.626648 10.3424 
A -2.09364 -0.759694 10.5559 
A -2.28713 -0.962016 10.7488 
A -2.52034 -1.15997 10.8972 
A -2.7479 -1.39071 11 
A -2.97607 -1.63411 11.0656 
A -3.20345 -1.88447 11.1005 
A -3.45337 -2.11148 11.1405 
A -3.7033 -2.33849 11.1806 
A -3.92965 -2.59199 11.1907 
A -4.14334 -2.85579 11.172 
A -4.33691 -3.13347 11.14 
A -4.51557 -3.4121 11.0623 
A -4.66474 -3.70262 10.9677 
A -4.80976 -3.99484 10.8719 
A -4.95477 -4.28707 10.7761 
A -5.07592 -4.57084 10.6333 
A -5.21776 -4.8202 10.4508 
A -5.38642 -5.02353 10.2368 
A -5.58524 -5.20329 10.0276 
A -5.78354 -5.39902 9.83276 
A -5.96039 -5.59695 9.62028 
A -6.11969 -5.72519 9.34866 
A -6.29936 -5.82802 9.07895 
A -6.46844 -5.92426 8.80011 
A -6.59761 -5.98361 8.49126 
A -6.73315 -6.01094 8.18064 
A -6.89949 -6.00024 7.8843 
A -6.99029 -5.95327 7.56004 
A -7.07835 -5.86352 7.24414 
A -7.13335 -5.74323 6.93092 
A -7.18212 -5.59499 6.62885 
A -7.19084 -5.45607 6.31865 
A -7.17979 -5.31888 6.00775 
A -7.16874 -5.1817 5.69685 
A -7.15498 -5.03776 5.38913 
A -7.15661 -4.85562 5.10204 
A -7.07833 -4.6523 4.84101 
A -6.97038 -4.42773 4.60968 
A -6.86365 -4.19772 4.38318 
A -6.74623 -3.99237 4.13896 
A -6.61141 -3.77197 3.91794 
A -6.54225 -3.5284 3.69103 
A -6.49885 -3.30813 3.43569 
A -6.41014 -3.11003 3.17399 
A -6.29612 -2.92075 2.91559 
A -6.14345 -2.72405 2.68406 
A -5.97778 -2.54268 2.449 
A -5.83675 -2.34319 2.21254 
A -5.69019 -2.12107 2.00092 
A -5.532 -1.87209 1.83184 
A -5.35658 -1.62735 1.67395 
A -5.1419 -1.42736 1.50215 
A -4.90371 -1.29325 1.29996 
A -4.6845 -1.1529 1.08122 
A -4.43151 -0.99609 0.916875 
A -4.17853 -0.839284 0.752529 
A -3.91472 -0.683562 0.605018 
A -3.64203 -0.535536 0.466001 
A -3.34819 -0.417839 0.34188 
A -3.04849 -0.329403 0.207867 
A -2.74835 -0.219852 0.0916278 
A -2.44599 -0.114221 -0.0224838 
A -2.13164 -0.0340067 -0.124216 
A -1.81406 0.0763484 -0.174868 
A -1.49684 0.184406 -0.232295 
100 
Atoms. Timestep: 2000 
A 0 0 0 
A -0.0726464 0.149261 0.296721 
A -0.0985011 0.299862 0.60045 
A -0.120229 0.479693 0.88818 
A -0.147425 0.64371 1.18476 
A -0.202718 0.80673 1.47796 
A -0.286217 0.937571 1.78046 
A -0.350841 1.09362 2.07555 
A -0.429176 1.25948 2.36182 
A -0.496581 1.45319 2.63299 
A -0.566434 1.69166 2.86505 
A -0.613646 1.94974 3.0813 
A -0.703087 2.20896 3.28232 
A -0.827531 2.46401 3.46957 
A -0.912214 2.74825 3.63581 
A -1.05594 3.00966 3.79894 
A -1.2337 3.2415 3.97287 
A -1.44009 3.40683 4.18656 
A -1.67617 3.52479 4.40092 
A -1.92938 3.66238 4.58136 
A -2.16203 3.81243 4.77874 
A -2.39819 3.98107 4.95591 
A -2.64706 4.1609 5.10194 
A -2.90044 4.34714 5.23121 
A -3.12854 4.53841 5.39549 
A -3.39294 4.67669 5.5585 
A -3.69059 4.7786 5.6874 
A -4.00378 4.8083 5.81636 
A -4.32706 4.79946 5.92131 
A -4.65897 4.7862 5.99382 
A -4.99184 4.78863 6.06304 
A -5.32579 4.81522 6.12107 
A -5.66505 4.81874 6.14328 
A -6.00448 4.79916 6.14184 
A -6.33976 4.74474 6.157 
A -6.6778 4.71061 6.14432 
A -7.01082 4.64208 6.14175 
A -7.34359 4.58231 6.17769 
A -7.67166 4.5146 6.23583 
A -7.9936 4.42736 6.30173 
A -8.31484 4.32084 6.33431 
A -8.64086 4.23238 6.37285 
A -8.9715 4.15318 6.37437 
A -9.28345 4.01796 6.37676 
A -9.59522 3.88902 6.33471 
A -9.90381 3.78102 6.24136 
A -10.1875 3.64554 6.11197 
A -10.4527 3.47651 5.98274 
A -10.7461 3.35396 5.86227 
A -11.0395 3.23142 5.74179 
A -11.3138 3.07254 5.61885 
A -11.5528 2.86758 5.49057 
A -11.7509 2.65283 5.31663 
A -11.8754 2.3858 5.14697 
A -12.0211 2.13984 4.96294 
A -12.162 1.90637 4.7598 
A -12.2754 1.67096 4.5423 
A -12.3555 1.41639 4.33161 
A -12.4249 1.16744 4.11069 
A -12.4729 0.917416 3.88534 
A -12.4973 0.646981 3.68073 
A -12.4816 0.392291 3.45603 
A -12.4507 0.167805 3.20256 
A -12.4161 -0.0581003 2.95083 
A -12.347 -0.247555 2.67709 
A -12.2708 -0.418442 2.3932 
A -12.1638 -0.571007 2.10881 
A -12.0513 -0.728196 1.8291 
A -11.9388 -0.882996 1.54809 
A -11.8197 -1.03329 1.26733 
A -11.6672 -1.17651 0.999306 
A -11.4854 -1.3111 0.745473 
A -11.2829 -1.43118 0.500166 
A -11.0779 -1.5402 0.251778 
A -10.8208 -1.64383 0.0549383 
A -10.5338 -1.712 -0.114271 
A -10.2704 -1.7407 -0.327277 
A -10.0301 -1.79998 -0.560349 
A -9.779 -1.82952 -0.787717 
A -9.49618 -1.89989 -0.962819 
A -9.18368 -1.96466 -1.08009 
A -8.85026 -2.00204 -1.13512 
A -8.51927 -2.05155 -1.1951 
A -8.18827 -2.12813 -1.20821 
A -7.84962 -2.14006 -1.23609 
A -7.51227 -2.18226 -1.23295 
A -7.17318 -2.19551 -1.25402 
A -6.84706 -2.26543 -1.32005 
A -6.52328 -2.31563 -1.41087 
A -6.18937 -2.31145 -1.47479 
A -5.85249 -2.2932 -1.51692 
A -5.51566 -2.24842 -1.5288 
A -5.17979 -2.20719 -1.56186 
A -4.84695 -2.14601 -1.59465 
A -4.51265 -2.08606 -1.61045 
A -4.18162 -2.00998 -1.62563 
A -3.84645 -1.95296 -1.62235 
A -3.50776 -1.9234 -1.61855 
A -3.17681 -1.84793 -1.59924 
A -2.86398 -1.71474 -1.59781 
100 
Atoms. Timestep: 3000 
A 0 0 0 
A -0.176191 0.180112 0.22829 
A -0.314534 0.355504 0.484608 
A -0.453656 0.546479 0.729095 
A -0.588441 0.723214 0.986384 
A -0.715959 0.876395 1.26184 
A -0.880931 1.00888 1.52798 
A -1.05611 1.10204 1.80408 
A -1.24077 1.19743 2.07316 
A -1.45982 1.23844 2.32994 
A -1.68682 1.30398 2.57443 
A -1.88731 1.39906 2.83204 
A -2.11883 1.5449 3.03385 
A -2.34779 1.72105 3.21316 
A -2.51408 1.95219 3.39896 
A -2.6726 2.17881 3.59673 
A -2.81864 2.44994 3.74081 
A -3.01042 2.7182 3.82364 
A -3.20189 2.995 3.87176 
A -3.33099 3.30932 3.88371 
A -3.45963 3.62268 3.85445 
A -3.59529 3.93104 3.80852 
A -3.70479 4.25288 3.81384 
A -3.84255 4.56107 3.7733 
A -3.9953 4.85084 3.68221 
A -4.15141 5.15199 3.65892 
A -4.32057 5.43809 3.5873 
A -4.48313 5.71165 3.46754 
A -4.64268 5.9879 3.34996 
A -4.81275 6.26509 3.25074 
A -4.93493 6.57073 3.16556 
A -5.05284 6.88441 3.10812 
A -5.1431 7.20118 3.02378 
A -5.23289 7.50832 2.90888 
A -5.34375 7.80028 2.77445 
A -5.3704 8.103 2.62198 
A -5.38862 8.39775 2.45348 
A -5.41908 8.65217 2.23 
A -5.41569 8.91517 2.01454 
A -5.46408 9.20965 1.85164 
A -5.50024 9.52133 1.72068 
A -5.53758 9.83995 1.60804 
A -5.59633 10.1547 1.4938 
A -5.66555 10.4373 1.31779 
A -5.66428 10.7066 1.1103 
A -5.67695 10.9556 0.879115 
A -5.64985 11.1676 0.614705 
A -5.62193 11.3484 0.328096 
A -5.60409 11.5679 0.0690431 
A -5.58379 11.7337 -0.227079 
A -5.51746 11.8353 -0.544693 
A -5.40341 11.8889 -0.860469 
A -5.23578 11.9066 -1.15574 
A -5.03441 11.8205 -1.41578 
A -4.82043 11.7649 -1.67409 
A -4.5952 11.6892 -1.9173 
A -4.40233 11.5755 -2.17314 
A -4.16241 11.4383 -2.37121 
A -3.93222 11.312 -2.58723 
A -3.71023 11.122 -2.76104 
A -3.48868 10.9359 -2.9396 
A -3.27156 10.766 -3.13857 
A -3.03847 10.5882 -3.31075 
A -2.81586 10.4097 -3.49565 
A -2.59863 10.1881 -3.63467 
A -2.38201 9.96025 -3.76409 
A -2.19033 9.7 -3.86958 
A -1.99534 9.43648 -3.95976 
A -1.78239 9.17395 -3.99627 
A -1.5529 8.92681 -4.03931 
A -1.32948 8.67119 -4.05785 
A -1.1638 8.37475 -4.04136 
A -1.05817 8.05168 -4.03308 
A -0.958537 7.72874 -3.99584 
A -0.876667 7.40265 -3.94526 
A -0.807279 7.07931 -3.86627 
A -0.690901 6.76542 -3.80689 
A -0.595336 6.44488 -3.74587 
A -0.480522 6.13366 -3.67129 
A -0.400249 5.8268 -3.54884 
A -0.287711 5.53873 -3.4076 
A -0.134914 5.25982 -3.28735 
A 0.0226951 4.98436 -3.16536 
A 0.1292 4.67971 -3.05838 
A 0.234895 4.4086 -2.88251 
A 0.282419 4.15534 -2.66069 
A 0.355563 3.9243 -2.42222 
A 0.376482 3.66656 -2.20147 
A 0.341282 3.42845 -1.96133 
A 0.325612 3.20686 -1.70394 
A 0.310641 2.98416 -1.44746 
A 0.250537 2.72739 -1.23286 
A 0.173859 2.51376 -0.979706 
A 0.100358 2.30018 -0.725582 
A 0.0103342 2.088 -0.475628 
A -0.117482 1.90355 -0.22021 
A -0.248941 1.7611 0.0591229 
A -0.384176 1.60505 0.329238 
A -0.472556 1.46979 0.62839 
A -0.592013 1.33123 0.91498 
100 
Atoms. Timestep: 4000 
A 0 0 0 
A -0.249656 0.152696 0.173078 
A -0.488071 0.256629 0.392067 
A -0.725411 0.378337 0.602915 
A -0.980424 0.504698 0.788928 
A -1.22823 0.646576 0.973495 
A -1.47054 0.813313 1.14403 
A -1.71319 0.956441 1.33439 
A -1.95878 1.08448 1.5316 
A -2.19713 1.23793 1.71932 
A -2.44351 1.37649 1.90826 
A -2.71748 1.49326 2.07228 
A -3.00462 1.60442 2.2165 
A -3.27393 1.76645 2.34619 
A -3.5783 1.85305 2.47051 
A -3.90489 1.90982 2.54612 
A -4.23815 1.97433 2.56548 
A -4.56583 2.06497 2.56903 
A -4.87677 2.16337 2.47292 
A -5.18888 2.25611 2.37501 
A -5.48936 2.38603 2.28319 
A -5.7939 2.51528 2.20479 
A -6.06623 2.6708 2.07344 
A -6.32619 2.82236 1.91516 
A -6.58373 2.98742 1.76676 
A -6.83912 3.18864 1.66731 
A -7.10192 3.35808 1.53379 
A -7.37083 3.50645 1.38795 
A -7.60718 3.68359 1.21953 
A -7.85019 3.87603 1.07984 
A -8.05326 4.03906 0.861246 
A -8.24421 4.20583 0.634695 
A -8.41556 4.38817 0.404492 
A -8.57307 4.54414 0.146693 
A -8.70384 4.71848 -0.114279 
A -8.77784 4.88444 -0.401648 
A -8.85749 5.11923 -0.63431 
A -8.95688 5.34449 -0.868778 
A -8.98222 5.54928 -1.139 
A -9.02196 5.74208 -1.41622 
A -9.05442 5.96358 -1.67211 
A -9.07177 6.18623 -1.92849 
A -9.11422 6.42655 -2.16522 
A -9.09365 6.64164 -2.42774 
A -8.94027 6.81875 -2.67412 
A -8.77296 6.99523 -2.91175 
A -8.57522 7.16254 -3.13198 
A -8.36545 7.27887 -3.37294 
A -8.18418 7.42161 -3.62268 
A -7.97533 7.51917 -3.87261 
A -7.75697 7.63744 -4.10483 
A -7.50423 7.77047 -4.2893 
A -7.2304 7.888 -4.45302 
A -6.97666 7.96002 -4.66757 
A -6.68753 8.03598 -4.82953 
A -6.38866 8.10125 -4.97792 
A -6.08771 8.14665 -5.12947 
A -5.75922 8.13893 -5.21682 
A -5.43708 8.13736 -5.32555 
A -5.10525 8.08624 -5.3792 
A -4.7695 8.06245 -5.42719 
A -4.43373 8.04949 -5.47906 
A -4.09825 8.041 -5.53365 
A -3.76046 8.05824 -5.56836 
A -3.42303 8.06949 -5.52817 
A -3.08727 8.06678 -5.47473 
A -2.75914 8.02547 -5.39583 
A -2.42988 7.99057 -5.31855 
A -2.10635 7.92801 -5.23481 
A -1.77706 7.89914 -5.15523 
A -1.45254 7.81852 -5.0937 
A -1.13663 7.69595 -5.06573 
A -0.858457 7.51114 -5.00198 
A -0.59276 7.31879 -4.91249 
A -0.352563 7.08871 -4.84202 
A -0.153059 6.84271 -4.7184 
A 0.0480523 6.58542 -4.62375 
A 0.248197 6.33895 -4.50213 
A 0.429928 6.0925 -4.35435 
A 0.567446 5.83069 -4.1866 
A 0.665199 5.56147 -4.00339 
A 0.763224 5.28477 -3.83184 
A 0.864515 5.01166 -3.65649 
A 0.91265 4.72013 -3.48827 
A 0.94331 4.45644 -3.27584 
A 0.959048 4.19099 -3.06397 
A 0.969424 3.90787 -2.87599 
A 0.939353 3.60298 -2.72856 
A 0.90431 3.3082 -2.5628 
A 0.863704 3.04575 -2.3505 
A 0.812037 2.7939 -2.12801 
A 0.695806 2.51166 -1.97823 
A 0.584658 2.24946 -1.7925 
A 0.471946 1.99576 -1.5962 
A 0.389438 1.71342 -1.42568 
A 0.278373 1.4413 -1.25476 
A 0.199701 1.18004 -1.0519 
A 0.0948931 0.910036 -0.873813 
A 0.00157979 0.63939 -0.690391 
A -0.115371 0.370862 -0.517721 
100 
Atoms. Timestep: 5000 
A 0 0 0 
A -0.160897 -0.0559954 0.294239 
A -0.317181 -0.108671 0.591562 
A -0.487924 -0.177907 0.877312 
A -0.683862 -0.260213 1.14271 
A -0.844608 -0.342837 1.43069 
A -0.975804 -0.443942 1.72761 
A -1.14547 -0.515664 2.01339 
A -1.32173 -0.592449 2.29382 
A -1.53395 -0.657071 2.55147 
A -1.72374 -0.713513 2.82786 
A -1.92572 -0.749058 3.09905 
A -2.08223 -0.781327 3.39916 
A -2.26072 -0.808153 3.68729 
A -2.4034 -0.826671 3.99535 
A -2.51284 -0.837587 4.31707 
A -2.6077 -0.841252 4.64355 
A -2.73854 -0.823941 4.95689 
A -2.86611 -0.835456 5.27184 
A -3.04059 -0.81837 5.56315 
A -3.20369 -0.763585 5.85641 
A -3.40492 -0.688181 6.11988 
A -3.58768 -0.578991 6.38497 
A -3.74587 -0.429051 6.64592 
A -3.91217 -0.240071 6.87446 
A -4.03946 -0.0746756 7.14287 
A -4.15242 0.102156 7.4104 
A -4.27825 0.293814 7.66146 
A -4.39482 0.48105 7.92022 
A -4.51023 0.670082 8.17819 
A -4.69809 0.86389 8.38494 
A -4.91736 1.07049 8.54254 
A -5.13634 1.29155 8.67959 
A -5.3606 1.50835 8.81487 
A -5.59091 1.73692 8.91644 
A -5.81375 1.9887 8.96693 
A -5.97312 2.28863 8.98242 
A -6.17349 2.56317 8.97335 
A -6.382 2.82923 8.93684 
A -6.61245 3.07917 8.94183 
A -6.8544 3.318 8.93766 
A -7.12 3.52214 8.87944 
A -7.39548 3.70803 8.80765 
A -7.63981 3.90208 8.67257 
A -7.84679 4.06517 8.45772 
A -8.05133 4.23896 8.24901 
A -8.22501 4.39853 8.00412 
A -8.40538 4.51557 7.74074 
A -8.61706 4.63244 7.50172 
A -8.7943 4.75344 7.238 
A -8.95301 4.90375 6.97759 
A -9.05813 5.08054 6.70685 
A -9.13428 5.24919 6.42162 
A -9.20064 5.38347 6.11639 
A -9.25918 5.5667 5.83603 
A -9.35931 5.68908 5.53504 
A -9.46032 5.76995 5.22063 
A -9.49896 5.82572 4.88746 
A -9.56556 5.90435 4.56345 
A -9.5514 5.92811 4.22458 
A -9.51313 5.93025 3.88675 
A -9.41616 5.96323 3.56255 
A -9.30094 5.99717 3.24447 
A -9.15538 6.00723 2.93737 
A -8.96534 6.0072 2.65544 
A -8.74585 5.94985 2.40219 
A -8.4782 5.88629 2.20238 
A -8.21595 5.78301 2.01222 
A -7.95155 5.65683 1.83969 
A -7.69079 5.55198 1.64835 
A -7.41839 5.41122 1.50142 
A -7.16731 5.23345 1.35666 
A -6.9355 5.05192 1.18663 
A -6.70157 4.86755 1.02266 
A -6.47477 4.65297 0.888066 
A -6.27275 4.39937 0.785716 
A -6.09302 4.15038 0.639753 
A -5.906 3.88588 0.53652 
A -5.70292 3.62565 0.455014 
A -5.54613 3.34277 0.350151 
A -5.34321 3.09522 0.235509 
A -5.14016 2.86154 0.094932 
A -4.9264 2.62393 -0.0210257 
A -4.68615 2.39036 -0.0786781 
A -4.42859 2.17222 -0.119678 
A -4.18564 1.93447 -0.126797 
A -3.92308 1.71851 -0.13161 
A -3.64144 1.53053 -0.10096 
A -3.33533 1.38658 -0.0666636 
A -3.01303 1.2833 -0.0341427 
A -2.70677 1.13637 -0.01949 
A -2.43909 0.927712 -0.0397006 
A -2.17455 0.714138 -0.0369005 
A -1.93437 0.473679 -0.0272987 
A -1.69125 0.239586 -0.0684206 
A -1.45734 -0.00716261 -0.0701986 
A -1.22754 -0.256461 -0.0448904 
A -1.01201 -0.50792 0.0320339 
A -0.775559 -0.748763 0.073086 
A -0.537376 -0.990117 0.0979187 
100 
Atoms. Timestep: 6000 
A 0 0 0 
A -0.124536 0.232253 0.214824 
A -0.269029 0.482948 0.393356 
A -0.417683 0.738307 0.561565 
A -0.543086 1.00505 0.731041 
A -0.582625 1.27917 0.928255 
A -0.614326 1.55188 1.12882 
A -0.645634 1.82016 1.33533 
A -0.647232 2.1162 1.50253 
A -0.655901 2.39503 1.6969 
A -0.638369 2.68487 1.87377 
A -0.637081 2.96397 2.06795 
A -0.600732 3.23572 2.26902 
A -0.553019 3.51804 2.45238 
A -0.492124 3.78613 2.65242 
A -0.453819 4.06357 2.8452 
A -0.410672 4.32865 3.05369 
A -0.366979 4.58277 3.27531 
A -0.34531 4.80826 3.52885 
A -0.371954 5.06722 3.74755 
A -0.404833 5.32988 3.96092 
A -0.495835 5.61468 4.12282 
A -0.601828 5.90178 4.27093 
A -0.695085 6.21231 4.37326 
A -0.752186 6.52179 4.50196 
A -0.778253 6.78356 4.71736 
A -0.849181 7.04157 4.92712 
A -0.923648 7.3235 5.10197 
A -1.00353 7.59983 5.28324 
A -1.0398 7.90933 5.41924 
A -1.11245 8.2202 5.53621 
A -1.25216 8.52462 5.59463 
A -1.37356 8.84134 5.61796 
A -1.43717 9.17291 5.65816 
A -1.51339 9.5042 5.66441 
A -1.6 9.83205 5.63964 
A -1.65904 10.1607 5.57562 
A -1.77007 10.4749 5.50789 
A -1.86872 10.7727 5.37689 
A -2.00977 11.0489 5.23755 
A -2.15935 11.2976 5.06042 
A -2.31853 11.5183 4.85661 
A -2.50179 11.7413 4.67688 
A -2.68853 11.9029 4.44322 
A -2.88171 11.9525 4.16786 
A -3.07256 12.0321 3.89797 
A -3.28463 12.0742 3.63556 
A -3.50679 12.1059 3.38015 
A -3.74249 12.1324 3.13654 
A -3.9597 12.0768 2.88096 
A -4.14713 12.0343 2.60048 
A -4.35823 11.9427 2.35022 
A -4.59138 11.8386 2.12568 
A -4.85415 11.7219 1.94421 
A -5.09592 11.5934 1.74261 
A -5.29857 11.4362 1.51944 
A -5.49711 11.2609 1.30619 
A -5.65394 11.0438 1.09683 
A -5.77522 10.8119 0.879729 
A -5.84068 10.524 0.711178 
A -5.89323 10.2283 0.551753 
A -5.92185 9.93101 0.389277 
A -5.94628 9.62635 0.240328 
A -5.92927 9.30398 0.133602 
A -5.86942 8.98546 0.0308173 
A -5.7971 8.6602 -0.0368056 
A -5.65988 8.35847 -0.112519 
A -5.50356 8.05956 -0.155111 
A -5.39042 7.73895 -0.15199 
A -5.27674 7.42393 -0.210633 
A -5.16206 7.10521 -0.240137 
A -5.09649 6.77199 -0.256289 
A -5.06182 6.43735 -0.305438 
A -5.00903 6.11133 -0.386195 
A -4.86881 5.81096 -0.461801 
A -4.75897 5.50122 -0.548953 
A -4.62669 5.20418 -0.64831 
A -4.47473 4.90659 -0.711151 
A -4.30575 4.6116 -0.70634 
A -4.19784 4.28932 -0.716083 
A -4.10895 3.96492 -0.666486 
A -4.01967 3.64442 -0.596427 
A -3.89312 3.35165 -0.478652 
A -3.79337 3.04755 -0.363871 
A -3.67569 2.73422 -0.3041 
A -3.567 2.42328 -0.219814 
A -3.43218 2.12085 -0.142626 
A -3.28796 1.81568 -0.101723 
A -3.11818 1.52151 -0.117298 
A -2.96595 1.22225 -0.170836 
A -2.83041 0.912252 -0.204478 
A -2.66868 0.620067 -0.268279 
A -2.5521 0.30187 -0.295825 
A -2.41602 -0.00828872 -0.325558 
A -2.29494 -0.325828 -0.315163 
A -2.16885 -0.641572 -0.318276 
A -2.00406 -0.937439 -0.348338 
A -1.82613 -1.21966 -0.413868 
A -1.68102 -1.51271 -0.506962 
A -1.55668 -1.81701 -0.593787 
100 
Atoms. Timestep: 7000 
A 0 0 0 
A -0.0662767 0.125437 0.308987 
A -0.150438 0.199791 0.629905 
A -0.23652 0.245576 0.955625 
A -0.349829 0.294328 1.27246 
A -0.461268 0.349317 1.58894 
A -0.551155 0.391272 1.91414 
A -0.679261 0.416774 2.22805 
A -0.782925 0.493147 2.54273 
A -0.885653 0.567203 2.85826 
A -0.959999 0.639078 3.18216 
A -1.06409 0.741915 3.48906 
A -1.19315 0.831005 3.79073 
A -1.33953 0.908801 4.08758 
A -1.47131 0.968591 4.39525 
A -1.61188 1.0258 4.6995 
A -1.7405 1.05549 5.01283 
A -1.88385 1.07423 5.32056 
A -2.02302 1.06556 5.63065 
A -2.21468 1.04995 5.91105 
A -2.40528 0.966085 6.17982 
A -2.63236 0.921476 6.42891 
A -2.89019 0.88404 6.64736 
A -3.1406 0.851079 6.87498 
A -3.38848 0.767308 7.09209 
A -3.60497 0.628728 7.31465 
A -3.84297 0.502302 7.52194 
A -4.10736 0.404283 7.71191 
A -4.38498 0.334596 7.89542 
A -4.66712 0.274097 8.07524 
A -4.92363 0.198119 8.28507 
A -5.19458 0.130032 8.47885 
A -5.4744 0.0827195 8.66609 
A -5.75509 0.0498149 8.85512 
A -6.04562 0.0185525 9.02895 
A -6.35873 0.015666 9.16144 
A -6.68706 -0.0145404 9.24442 
A -7.01271 -0.0741469 9.32187 
A -7.3511 -0.098331 9.34449 
A -7.68302 -0.16566 9.37434 
A -8.02004 -0.197842 9.34299 
A -8.35777 -0.211742 9.30626 
A -8.69619 -0.217786 9.27415 
A -9.02382 -0.272748 9.20177 
A -9.32146 -0.32835 9.04711 
A -9.61932 -0.378289 8.89095 
A -9.89418 -0.405077 8.69262 
A -10.1662 -0.402683 8.48867 
A -10.4419 -0.320785 8.3073 
A -10.6796 -0.193348 8.10028 
A -10.8847 -0.0412404 7.87578 
A -11.045 0.0819548 7.60245 
A -11.1887 0.240024 7.33793 
A -11.3201 0.40537 7.07147 
A -11.415 0.581885 6.79683 
A -11.5134 0.714729 6.49972 
A -11.5808 0.861705 6.20063 
A -11.5966 0.986881 5.8849 
A -11.565 1.08439 5.56073 
A -11.4453 1.17684 5.25622 
A -11.3239 1.25306 4.94791 
A -11.1585 1.34079 4.66406 
A -10.9831 1.45885 4.3978 
A -10.7769 1.54152 4.1404 
A -10.5415 1.62902 3.91128 
A -10.2895 1.73625 3.70972 
A -10.0189 1.86437 3.54863 
A -9.78736 2.01564 3.35088 
A -9.54594 2.12948 3.14027 
A -9.31653 2.21511 2.90439 
A -9.04883 2.25711 2.69904 
A -8.76356 2.29411 2.51778 
A -8.47256 2.32995 2.34564 
A -8.18467 2.32812 2.16477 
A -7.90924 2.3969 1.97766 
A -7.6462 2.42115 1.7636 
A -7.37166 2.47887 1.57151 
A -7.08532 2.51428 1.39163 
A -6.77292 2.53579 1.2592 
A -6.4611 2.52859 1.12385 
A -6.15927 2.50334 0.969381 
A -5.83591 2.47341 0.868683 
A -5.52042 2.47805 0.741994 
A -5.1974 2.47895 0.635907 
A -4.86603 2.43505 0.573741 
A -4.53668 2.42661 0.489733 
A -4.20566 2.42729 0.412091 
A -3.88426 2.38903 0.308004 
A -3.57513 2.3925 0.166485 
A -3.2641 2.43028 0.0344376 
A -2.9442 2.40785 -0.0785127 
A -2.62843 2.38767 -0.202942 
A -2.35434 2.25102 -0.3506 
A -2.06827 2.12526 -0.484562 
A -1.80093 1.96784 -0.623677 
A -1.55307 1.78799 -0.771384 
A -1.32788 1.60848 -0.952117 
A -1.0908 1.39902 -1.07669 
A -0.873353 1.1953 -1.24045 
A -0.661581 0.987594 -1.40662 
100 
Atoms. Timestep: 8000 
A 0 0 0 
A 0.0308653 -0.0626681 0.332746 
A 0.0116482 -0.126063 0.666231 
A 0.0104523 -0.174562 1.00275 
A 0.00816906 -0.264253 1.3307 
A -0.0664211 -0.334103 1.65498 
A -0.158414 -0.414179 1.97235 
A -0.301727 -0.48905 2.27144 
A -0.46722 -0.587907 2.55151 
A -0.688246 -0.645658 2.80333 
A -0.929311 -0.724582 3.02974 
A -1.19651 -0.812573 3.22069 
A -1.45766 -0.950042 3.38951 
A -1.70133 -1.14023 3.53112 
A -1.93184 -1.35572 3.65772 
A -2.14903 -1.56975 3.80813 
A -2.30294 -1.82343 3.97415 
A -2.46428 -2.10617 4.07224 
A -2.61477 -2.38603 4.1932 
A -2.74051 -2.67583 4.31892 
A -2.88295 -2.96752 4.42006 
A -3.02313 -3.26325 4.51222 
A -3.20375 -3.54893 4.54914 
A -3.35912 -3.84632 4.60408 
A -3.48205 -4.16315 4.61442 
A -3.55881 -4.49428 4.62239 
A -3.67543 -4.81329 4.6072 
A -3.81867 -5.1199 4.57446 
A -4.00451 -5.4017 4.53383 
A -4.16275 -5.69571 4.46962 
A -4.31411 -5.99326 4.40517 
A -4.41465 -6.30754 4.32321 
A -4.53453 -6.62368 4.28734 
A -4.67685 -6.92981 4.24701 
A -4.8544 -7.21778 4.21313 
A -5.05853 -7.48691 4.17439 
A -5.24463 -7.76602 4.11903 
A -5.42286 -8.05048 4.06505 
A -5.64263 -8.29735 3.98533 
A -5.85778 -8.55878 3.95425 
A -6.07009 -8.81602 3.88826 
A -6.27936 -9.05988 3.77718 
A -6.43764 -9.32779 3.64018 
A -6.573 -9.58705 3.46679 
A -6.65791 -9.83682 3.2523 
A -6.77037 -10.0686 3.03045 
A -6.90341 -10.2522 2.77709 
A -6.9852 -10.4233 2.49485 
A -7.1371 -10.6017 2.24851 
A -7.34398 -10.7244 2.0082 
A -7.5529 -10.8113 1.75443 
A -7.71236 -10.8451 1.45606 
A -7.89975 -10.8801 1.17452 
A -8.05767 -10.9187 0.875904 
A -8.21014 -10.924 0.572052 
A -8.34252 -10.9056 0.25942 
A -8.43394 -10.8783 -0.0669122 
A -8.50161 -10.8057 -0.392105 
A -8.54266 -10.6746 -0.703141 
A -8.55434 -10.5037 -0.996824 
A -8.56341 -10.3076 -1.2744 
A -8.51259 -10.0805 -1.5223 
A -8.46697 -9.8182 -1.73378 
A -8.37117 -9.59078 -1.96767 
A -8.25008 -9.37462 -2.2005 
A -8.14163 -9.13075 -2.41113 
A -8.00522 -8.85527 -2.5564 
A -7.84727 -8.59368 -2.70548 
A -7.65492 -8.35358 -2.85022 
A -7.46858 -8.12867 -3.02428 
A -7.24328 -7.91562 -3.16374 
A -6.98176 -7.71024 -3.23461 
A -6.70267 -7.51802 -3.26223 
A -6.43209 -7.31467 -3.23004 
A -6.16708 -7.12106 -3.14125 
A -5.89986 -6.95971 -3.0065 
A -5.64421 -6.78774 -2.86272 
A -5.41998 -6.57306 -2.72404 
A -5.18871 -6.37015 -2.57932 
A -4.94286 -6.19108 -2.42737 
A -4.707 -6.00916 -2.26343 
A -4.49879 -5.8128 -2.07987 
A -4.28987 -5.5896 -1.93111 
A -4.08393 -5.35828 -1.79083 
A -3.90078 -5.14725 -1.59713 
A -3.72789 -4.93389 -1.39666 
A -3.58637 -4.69688 -1.19817 
A -3.44677 -4.46472 -0.992703 
A -3.3556 -4.22034 -0.77461 
A -3.28833 -3.9551 -0.572806 
A -3.22021 -3.65913 -0.419966 
A -3.12285 -3.37043 -0.269048 
A -2.95925 -3.11501 -0.115441 
A -2.79919 -2.8549 0.0339694 
A -2.58956 -2.59928 0.1134 
A -2.38607 -2.3358 0.182507 
A -2.16913 -2.07691 0.221372 
A -2.00773 -1.78311 0.278216 
A -1.86655 -1.47772 0.327282 
A -1.70886 -1.17897 0.365731 
100 
Atoms. Timestep: 9000 
A 0 0 0 
A -0.138339 -0.112132 0.289636 
A -0.332752 -0.22866 0.543062 
A -0.530907 -0.352883 0.789847 
A -0.750673 -0.458008 1.02702 
A -0.939115 -0.55376 1.29333 
A -1.12463 -0.599474 1.57457 
A -1.33823 -0.675941 1.8278 
A -1.56853 -0.770078 2.05953 
A -1.81393 -0.885823 2.26443 
A -2.04053 -1.04487 2.4618 
A -2.24375 -1.25435 2.63621 
A -2.47281 -1.48099 2.7447 
A -2.67393 -1.74015 2.83406 
A -2.87433 -1.99469 2.93728 
A -3.09266 -2.2318 3.04549 
A -3.32141 -2.46983 3.12681 
A -3.53394 -2.72237 3.20838 
A -3.78648 -2.9316 3.29809 
A -4.0141 -3.16828 3.38625 
A -4.20819 -3.43948 3.45241 
A -4.38781 -3.72811 3.44705 
A -4.55388 -4.02315 3.41588 
A -4.72798 -4.31493 3.4285 
A -4.94292 -4.57511 3.38722 
A -5.16672 -4.82724 3.34315 
A -5.37223 -5.09507 3.30273 
A -5.60701 -5.33457 3.24688 
A -5.83971 -5.57116 3.17288 
A -6.07048 -5.8108 3.10278 
A -6.30132 -6.0229 2.97114 
A -6.54497 -6.22695 2.85031 
A -6.80389 -6.43474 2.77696 
A -7.07196 -6.61498 2.67087 
A -7.35677 -6.78022 2.58614 
A -7.65126 -6.89246 2.45856 
A -7.89636 -7.03722 2.27264 
A -8.1363 -7.1901 2.08646 
A -8.37275 -7.32903 1.8855 
A -8.61099 -7.46465 1.68437 
A -8.85176 -7.58587 1.47717 
A -9.11094 -7.68361 1.28001 
A -9.38847 -7.78393 1.11115 
A -9.68615 -7.8441 0.958292 
A -9.97688 -7.86262 0.782978 
A -10.264 -7.84824 0.601425 
A -10.5333 -7.76775 0.410117 
A -10.7802 -7.67773 0.194435 
A -11.0229 -7.55351 -0.0087534 
A -11.2157 -7.37303 -0.222892 
A -11.3938 -7.16701 -0.426419 
A -11.5081 -6.92297 -0.633746 
A -11.6231 -6.676 -0.837202 
A -11.773 -6.43794 -1.02812 
A -11.9358 -6.1987 -1.20661 
A -12.0713 -5.95538 -1.40166 
A -12.2083 -5.70411 -1.5852 
A -12.2972 -5.43756 -1.77663 
A -12.3124 -5.14581 -1.95056 
A -12.2607 -4.84945 -2.10897 
A -12.1936 -4.53394 -2.21647 
A -12.0572 -4.24073 -2.32138 
A -11.9217 -3.93124 -2.35965 
A -11.7755 -3.64038 -2.45776 
A -11.6398 -3.34131 -2.54576 
A -11.4641 -3.07213 -2.65655 
A -11.2485 -2.82466 -2.7453 
A -11.0065 -2.60834 -2.84645 
A -10.7818 -2.37047 -2.93892 
A -10.5316 -2.1434 -2.97636 
A -10.259 -1.94184 -2.95039 
A -9.96889 -1.76947 -2.90871 
A -9.65659 -1.63802 -2.88063 
A -9.3431 -1.50722 -2.86585 
A -9.02335 -1.39402 -2.88909 
A -8.69577 -1.30351 -2.87901 
A -8.37228 -1.22344 -2.81161 
A -8.06648 -1.13052 -2.69563 
A -7.76001 -1.03653 -2.58231 
A -7.4488 -0.947865 -2.47796 
A -7.12834 -0.89439 -2.37774 
A -6.81704 -0.857748 -2.24602 
A -6.51124 -0.836311 -2.09895 
A -6.20382 -0.794503 -1.95987 
A -5.89741 -0.779738 -1.81327 
A -5.59533 -0.772189 -1.65741 
A -5.30644 -0.744893 -1.48021 
A -4.99395 -0.741695 -1.34627 
A -4.69238 -0.805272 -1.2027 
A -4.39049 -0.890291 -1.07143 
A -4.0789 -0.967619 -0.959458 
A -3.75933 -1.04865 -0.87637 
A -3.44948 -1.18292 -0.836783 
A -3.13641 -1.29974 -0.774021 
A -2.81773 -1.3871 -0.693945 
A -2.50731 -1.47904 -0.590095 
A -2.18849 -1.56724 -0.511517 
A -1.88365 -1.69773 -0.436395 
A -1.5876 -1.84719 -0.361424 
A -1.27029 -1.96876 -0.349906 
100 
Atoms. Timestep: 10000 
A 0 0 0 
A -0.167911 -0.132792 0.264145 
A -0.366173 -0.272099 0.502651 
A -0.568137 -0.418392 0.733755 
A -0.763262 -0.569087 0.967886 
A -0.971096 -0.679943 1.21307 
A -1.14183 -0.804852 1.47925 
A -1.36507 -0.932545 1.70164 
A -1.57798 -1.07813 1.92317 
A -1.79477 -1.21931 2.14378 
A -2.01231 -1.37235 2.35557 
A -2.25824 -1.48573 2.56114 
A -2.51887 -1.6234 2.73062 
A -2.7869 -1.75968 2.88933 
A -3.03834 -1.90196 3.06858 
A -3.25233 -2.04422 3.29123 
A -3.49353 -2.18136 3.48774 
A -3.72966 -2.28442 3.70959 
A -3.98436 -2.36365 3.92043 
A -4.23957 -2.43838 4.13228 
A -4.52601 -2.50351 4.30348 
A -4.84465 -2.59387 4.38035 
A -5.15388 -2.72743 4.42655 
A -5.46582 -2.85749 4.46367 
A -5.77049 -3.00727 4.44505 
A -6.05783 -3.17988 4.38813 
A -6.33452 -3.36626 4.32253 
A -6.61835 -3.54698 4.27371 
A -6.90543 -3.72538 4.23692 
A -7.20736 -3.85338 4.14716 
A -7.5204 -3.95792 4.06543 
A -7.82432 -4.01873 3.92566 
A -8.13844 -4.05957 3.80213 
A -8.442 -4.11288 3.65857 
A -8.73633 -4.16678 3.49714 
A -9.02554 -4.22421 3.32784 
A -9.32086 -4.30065 3.17771 
A -9.60108 -4.35574 2.9932 
A -9.86869 -4.37259 2.78415 
A -10.1055 -4.44201 2.55028 
A -10.3456 -4.53196 2.32698 
A -10.5902 -4.58098 2.09599 
A -10.8315 -4.67244 1.87459 
A -11.0772 -4.71835 1.64407 
A -11.3026 -4.76794 1.39443 
A -11.4909 -4.76636 1.1113 
A -11.6361 -4.71033 0.809047 
A -11.7555 -4.65848 0.494952 
A -11.8781 -4.61991 0.180166 
A -11.9539 -4.5951 -0.150351 
A -11.9923 -4.53625 -0.483003 
A -12.003 -4.44181 -0.809448 
A -12.0037 -4.31102 -1.12328 
A -12.0257 -4.17642 -1.43473 
A -12.0455 -4.06204 -1.7543 
A -12.0446 -4.00038 -2.08866 
A -12.0409 -3.92521 -2.42023 
A -12.0238 -3.79851 -2.73528 
A -11.9953 -3.64068 -3.03506 
A -11.9134 -3.48713 -3.32715 
A -11.8053 -3.28031 -3.57441 
A -11.689 -3.08435 -3.82676 
A -11.5341 -2.85537 -4.02472 
A -11.3605 -2.61856 -4.19612 
A -11.1567 -2.39632 -4.35313 
A -10.9426 -2.15127 -4.45175 
A -10.7033 -1.92675 -4.54068 
A -10.4408 -1.72299 -4.61258 
A -10.1638 -1.53629 -4.67612 
A -9.86687 -1.37093 -4.68536 
A -9.5749 -1.2067 -4.62721 
A -9.27063 -1.08118 -4.54199 
A -8.95463 -0.966165 -4.4918 
A -8.64866 -0.85913 -4.38921 
A -8.33279 -0.755619 -4.3177 
A -8.01299 -0.655286 -4.2606 
A -7.71608 -0.525568 -4.15755 
A -7.42536 -0.389056 -4.04599 
A -7.15372 -0.225526 -3.92324 
A -6.90471 -0.0457098 -3.77744 
A -6.63645 0.100884 -3.62861 
A -6.34957 0.170758 -3.46004 
A -6.0589 0.267341 -3.31245 
A -5.77838 0.359215 -3.14373 
A -5.52522 0.477735 -2.95017 
A -5.25062 0.576563 -2.77573 
A -4.9759 0.670523 -2.59882 
A -4.70196 0.739195 -2.4095 
A -4.42367 0.76553 -2.21595 
A -4.13312 0.770657 -2.03945 
A -3.85801 0.80767 -1.84312 
A -3.56121 0.805226 -1.67727 
A -3.24478 0.826937 -1.5548 
A -2.94792 0.813476 -1.3896 
A -2.63938 0.834972 -1.24838 
A -2.3333 0.83119 -1.10039 
A -2.04461 0.842469 -0.921136 
A -1.76013 0.810651 -0.73768 
A -1.48916 0.760366 -0.538559 
A -1.22801 0.743077 -0.321535 
100 
Atoms. Timestep: 11000 
A 0 0 0 
A -0.225867 -0.219978 0.127254 
A -0.452282 -0.434106 0.263216 
A -0.668745 -0.656637 0.401865 
A -0.892155 -0.875577 0.535106 
A -1.15221 -1.06274 0.648883 
A -1.37541 -1.28536 0.776237 
A -1.61286 -1.51794 0.847818 
A -1.86765 -1.73781 0.896171 
A -2.09815 -1.98317 0.943786 
A -2.33987 -2.22188 0.957575 
A -2.57467 -2.46743 0.970872 
A -2.8282 -2.6935 0.985483 
A -3.07648 -2.92458 0.961776 
A -3.36478 -3.10264 0.933918 
A -3.66416 -3.26378 0.93263 
A -3.94547 -3.44979 0.889451 
A -4.21413 -3.64706 0.822324 
A -4.50252 -3.81813 0.766024 
A -4.79332 -3.98563 0.711437 
A -5.10144 -4.11195 0.642868 
A -5.41541 -4.21027 0.557084 
A -5.72198 -4.27098 0.423176 
A -5.99398 -4.33343 0.228981 
A -6.21171 -4.39247 -0.0254005 
A -6.41169 -4.4416 -0.295947 
A -6.5784 -4.54528 -0.573536 